Title: *** SPICE deck for cell 7_segment_display{lay} from library prova_library4_Nand_lay
Date: Wed Dec 09 15:56:25 2015
Plotname: Operating Point
Flags: real
No. Variables: 5804
No. Points:            1
Offset:   0.0000000000000000e+000
Command: Linear Technology Corporation LTspice IV
Variables:
	0	V(net@4#2nmos@0_poly-right)	voltage
	1	V(net@0)	voltage
	2	V(net@1#2nmos@1_poly-left)	voltage
	3	V(net@14)	voltage
	4	V(net@14#12nmos@2_poly-left)	voltage
	5	V(net@22)	voltage
	6	V(x3#4nmos@3_poly-right)	voltage
	7	V(net@47)	voltage
	8	V(x1#2nmos@4_poly-left)	voltage
	9	V(net@53)	voltage
	10	V(net@53#12nmos@5_poly-left)	voltage
	11	V(net@62)	voltage
	12	V(net@103)	voltage
	13	V(net@22#10nmos@6_poly-right)	voltage
	14	V(net@62#10nmos@7_poly-left)	voltage
	15	V(x2#3nmos@8_poly-left)	voltage
	16	V(y1)	voltage
	17	V(net@103#11nmos@9_poly-left)	voltage
	18	V(x4#4nmos@10_poly-left)	voltage
	19	V(x1#12nmos@11_poly-left)	voltage
	20	V(net@1)	voltage
	21	V(x3#11nmos@12_poly-left)	voltage
	22	V(net@4#4pin@22_polysilicon-1)	voltage
	23	V(net@241)	voltage
	24	V(x4#15nmos@13_poly-right)	voltage
	25	V(net@275)	voltage
	26	V(net@255#3nmos@15_poly-left)	voltage
	27	V(y2)	voltage
	28	V(net@241#11nmos@16_poly-left)	voltage
	29	V(net@254#4nmos@17_poly-left)	voltage
	30	V(net@352#2nmos@18_poly-right)	voltage
	31	V(net@320)	voltage
	32	V(net@321)	voltage
	33	V(net@325)	voltage
	34	V(net@325#12nmos@20_poly-left)	voltage
	35	V(net@255)	voltage
	36	V(x1#26nmos@21_poly-right)	voltage
	37	V(net@362)	voltage
	38	V(x2#13nmos@22_poly-left)	voltage
	39	V(net@367)	voltage
	40	V(net@367#12nmos@23_poly-left)	voltage
	41	V(net@254#1contact@66_metal-1-polysilicon-1)	voltage
	42	V(x2#22nmos@24_poly-left)	voltage
	43	V(net@321#7contact@92_metal-1-p-act)	voltage
	44	V(x1#33nmos@25_poly-left)	voltage
	45	V(net@352#7contact@97_metal-1-p-act)	voltage
	46	V(x3#20nmos@26_poly-left)	voltage
	47	V(net@275#13pin@236_metal-1)	voltage
	48	V(y3)	voltage
	49	V(net@352#23nmos@27_poly-right)	voltage
	50	V(net@495)	voltage
	51	V(net@275#26nmos@28_poly-left)	voltage
	52	V(net@504)	voltage
	53	V(net@517)	voltage
	54	V(net@505)	voltage
	55	V(x2#35nmos@30_poly-left)	voltage
	56	V(x4#29nmos@31_poly-left)	voltage
	57	V(net@517#4contact@122_metal-1-polysilicon-1)	voltage
	58	V(net@612#5pin@305_polysilicon-1)	voltage
	59	V(net@587)	voltage
	60	V(x4#37nmos@33_poly-right)	voltage
	61	V(net@607)	voltage
	62	V(y4)	voltage
	63	V(net@587#18nmos@35_poly-left)	voltage
	64	V(net@603#7nmos@36_poly-left)	voltage
	65	V(net@597#4nmos@37_poly-left)	voltage
	66	V(net@696)	voltage
	67	V(x3#26nmos@38_poly-left)	voltage
	68	V(net@676)	voltage
	69	V(x1#44nmos@39_poly-left)	voltage
	70	V(net@679#7nmos@40_poly-left)	voltage
	71	V(net@607#3pin@349_polysilicon-1)	voltage
	72	V(net@679)	voltage
	73	V(net@705)	voltage
	74	V(net@759#2nmos@42_poly-right)	voltage
	75	V(net@747)	voltage
	76	V(net@352#38nmos@43_poly-left)	voltage
	77	V(net@738)	voltage
	78	V(net@738#5nmos@44_poly-left)	voltage
	79	V(net@597)	voltage
	80	V(net@806#2nmos@45_poly-right)	voltage
	81	V(net@794)	voltage
	82	V(x2#51nmos@46_poly-left)	voltage
	83	V(net@785)	voltage
	84	V(net@785#5nmos@47_poly-left)	voltage
	85	V(net@603#4contact@140_metal-1-polysilicon-1)	voltage
	86	V(x2#57nmos@48_poly-right)	voltage
	87	V(net@841)	voltage
	88	V(net@352#48nmos@49_poly-left)	voltage
	89	V(net@832)	voltage
	90	V(net@832#5nmos@50_poly-left)	voltage
	91	V(net@612#10contact@192_metal-1-p-act)	voltage
	92	V(x3#36nmos@51_poly-left)	voltage
	93	V(net@806#4pin@426_polysilicon-1)	voltage
	94	V(x3#41nmos@52_poly-left)	voltage
	95	V(net@759#4pin@404_polysilicon-1)	voltage
	96	V(x2#66nmos@53_poly-left)	voltage
	97	V(net@705#6contact@160_metal-1-polysilicon-1)	voltage
	98	V(x1#57nmos@54_poly-left)	voltage
	99	V(y5)	voltage
	100	V(net@995)	voltage
	101	V(x4#50nmos@55_poly-right)	voltage
	102	V(net@984#6nmos@56_poly-left)	voltage
	103	V(net@983#4nmos@57_poly-left)	voltage
	104	V(y6)	voltage
	105	V(net@995#11nmos@58_poly-left)	voltage
	106	V(net@1008#4nmos@59_poly-left)	voltage
	107	V(net@1072#2nmos@60_poly-right)	voltage
	108	V(net@1060)	voltage
	109	V(net@352#56nmos@61_poly-left)	voltage
	110	V(net@1068)	voltage
	111	V(net@1068#13nmos@62_poly-left)	voltage
	112	V(net@984)	voltage
	113	V(x3#51nmos@63_poly-right)	voltage
	114	V(net@1107)	voltage
	115	V(net@352#66nmos@64_poly-left)	voltage
	116	V(net@1115)	voltage
	117	V(net@1115#13nmos@65_poly-left)	voltage
	118	V(net@983#2contact@228_metal-1-polysilicon-1)	voltage
	119	V(x3#60nmos@66_poly-right)	voltage
	120	V(net@1154)	voltage
	121	V(net@1072#13nmos@67_poly-left)	voltage
	122	V(net@1162)	voltage
	123	V(net@1162#13nmos@68_poly-left)	voltage
	124	V(net@1008#1contact@229_metal-1-polysilicon-1)	voltage
	125	V(x2#76nmos@69_poly-left)	voltage
	126	V(net@1072#4pin@571_polysilicon-1)	voltage
	127	V(net@1252)	voltage
	128	V(net@1246#3nmos@70_poly-right)	voltage
	129	V(x4#63nmos@71_poly-left)	voltage
	130	V(net@1240#4nmos@72_poly-left)	voltage
	131	V(y7)	voltage
	132	V(net@1252#11nmos@73_poly-left)	voltage
	133	V(net@1265#4nmos@74_poly-left)	voltage
	134	V(x2#81nmos@75_poly-right)	voltage
	135	V(net@1317)	voltage
	136	V(net@352#76nmos@76_poly-left)	voltage
	137	V(net@1325)	voltage
	138	V(net@1325#13nmos@77_poly-left)	voltage
	139	V(net@1240#2contact@285_metal-1-polysilicon-1)	voltage
	140	V(x2#90nmos@78_poly-right)	voltage
	141	V(net@1364)	voltage
	142	V(net@1365#4nmos@79_poly-left)	voltage
	143	V(net@1372)	voltage
	144	V(net@1372#13nmos@80_poly-left)	voltage
	145	V(net@1265#1contact@286_metal-1-polysilicon-1)	voltage
	146	V(net@1423#2nmos@81_poly-right)	voltage
	147	V(net@1411)	voltage
	148	V(x3#73nmos@82_poly-left)	voltage
	149	V(net@1419)	voltage
	150	V(net@1419#13nmos@83_poly-left)	voltage
	151	V(net@1246)	voltage
	152	V(x3#81nmos@84_poly-left)	voltage
	153	V(net@1365)	voltage
	154	V(x2#99nmos@85_poly-left)	voltage
	155	V(net@1423#4pin@748_polysilicon-1)	voltage
	156	V(net@4)	voltage
	157	V(vdd)	voltage
	158	V(net@1#3pin@3_polysilicon-1)	voltage
	159	V(net@14#6pmos@2_poly-right)	voltage
	160	V(x3#2pmos@3_poly-right)	voltage
	161	V(x1#3pin@26_polysilicon-1)	voltage
	162	V(net@53#6pmos@5_poly-right)	voltage
	163	V(net@22#12pmos@6_poly-right)	voltage
	164	V(net@99)	voltage
	165	V(net@62#6pmos@7_poly-left)	voltage
	166	V(net@112)	voltage
	167	V(x2#7pmos@8_poly-right)	voltage
	168	V(net@132)	voltage
	169	V(net@103#5pmos@9_poly-right)	voltage
	170	V(x4#7pmos@10_poly-right)	voltage
	171	V(x1#10pmos@11_poly-right)	voltage
	172	V(x3#9pmos@12_poly-right)	voltage
	173	V(x4#17pmos@13_poly-right)	voltage
	174	V(net@319)	voltage
	175	V(net@275#4pmos@14_poly-right)	voltage
	176	V(net@250)	voltage
	177	V(net@255#7pmos@15_poly-right)	voltage
	178	V(net@270)	voltage
	179	V(net@241#5pmos@16_poly-right)	voltage
	180	V(net@254#7pmos@17_poly-right)	voltage
	181	V(net@352)	voltage
	182	V(net@321#1pin@169_polysilicon-1)	voltage
	183	V(net@325#6pmos@20_poly-right)	voltage
	184	V(x1#24pmos@21_poly-right)	voltage
	185	V(x2#14pin@188_polysilicon-1)	voltage
	186	V(net@367#6pmos@23_poly-right)	voltage
	187	V(x2#20pmos@24_poly-right)	voltage
	188	V(x1#31pmos@25_poly-right)	voltage
	189	V(x3#18pmos@26_poly-right)	voltage
	190	V(net@352#21pmos@27_poly-right)	voltage
	191	V(net@275#22pin@251_polysilicon-1)	voltage
	192	V(net@517#3pmos@29_poly-right)	voltage
	193	V(x2#33pin@255_polysilicon-1)	voltage
	194	V(x4#27pmos@31_poly-right)	voltage
	195	V(net@612)	voltage
	196	V(net@593)	voltage
	197	V(x4#40pmos@33_poly-right)	voltage
	198	V(net@628)	voltage
	199	V(net@607#8pmos@34_poly-right)	voltage
	200	V(net@646)	voltage
	201	V(net@587#14pmos@35_poly-right)	voltage
	202	V(net@603)	voltage
	203	V(net@659)	voltage
	204	V(net@597#8pin@332_polysilicon-1)	voltage
	205	V(x3#27pmos@38_poly-right)	voltage
	206	V(x1#45pin@353_polysilicon-1)	voltage
	207	V(net@679#2pmos@40_poly-right)	voltage
	208	V(net@705#3pmos@41_poly-right)	voltage
	209	V(net@759)	voltage
	210	V(net@352#32pmos@43_poly-left)	voltage
	211	V(net@738#7pin@391_polysilicon-1)	voltage
	212	V(net@806)	voltage
	213	V(x2#45pmos@46_poly-left)	voltage
	214	V(net@785#7pin@413_polysilicon-1)	voltage
	215	V(x2#55pmos@48_poly-right)	voltage
	216	V(net@352#42pmos@49_poly-left)	voltage
	217	V(net@832#7pin@435_polysilicon-1)	voltage
	218	V(x3#34pmos@51_poly-right)	voltage
	219	V(x3#39pmos@52_poly-right)	voltage
	220	V(x2#64pmos@53_poly-right)	voltage
	221	V(x1#55pmos@54_poly-right)	voltage
	222	V(x4#52pmos@55_poly-right)	voltage
	223	V(net@991)	voltage
	224	V(net@984#3pmos@56_poly-left)	voltage
	225	V(net@1004)	voltage
	226	V(net@983#8pmos@57_poly-right)	voltage
	227	V(net@1024)	voltage
	228	V(net@995#5pmos@58_poly-right)	voltage
	229	V(net@1008#7pmos@59_poly-right)	voltage
	230	V(net@1072)	voltage
	231	V(net@352#57pin@553_polysilicon-1)	voltage
	232	V(net@1068#9pmos@62_poly-right)	voltage
	233	V(x3#49pmos@63_poly-right)	voltage
	234	V(net@352#67pin@575_polysilicon-1)	voltage
	235	V(net@1115#9pmos@65_poly-right)	voltage
	236	V(x3#58pmos@66_poly-right)	voltage
	237	V(net@1072#14pin@597_polysilicon-1)	voltage
	238	V(net@1162#9pmos@68_poly-right)	voltage
	239	V(x2#74pmos@69_poly-right)	voltage
	240	V(net@1246#5pmos@70_poly-right)	voltage
	241	V(net@1248)	voltage
	242	V(x4#60pmos@71_poly-left)	voltage
	243	V(net@1261)	voltage
	244	V(net@1240#8pmos@72_poly-right)	voltage
	245	V(net@1281)	voltage
	246	V(net@1252#5pmos@73_poly-right)	voltage
	247	V(net@1265#7pmos@74_poly-right)	voltage
	248	V(x2#79pmos@75_poly-right)	voltage
	249	V(net@352#77pin@686_polysilicon-1)	voltage
	250	V(net@1325#9pmos@77_poly-right)	voltage
	251	V(x2#88pmos@78_poly-right)	voltage
	252	V(net@1365#5pin@708_polysilicon-1)	voltage
	253	V(net@1372#9pmos@80_poly-right)	voltage
	254	V(net@1423)	voltage
	255	V(x3#74pin@730_polysilicon-1)	voltage
	256	V(net@1419#9pmos@83_poly-right)	voltage
	257	V(x3#79pmos@84_poly-right)	voltage
	258	V(x2#97pmos@85_poly-right)	voltage
	259	V(x3#0contact@17_metal-1-polysilicon-1)	voltage
	260	V(x1)	voltage
	261	V(x2#0contact@35_metal-1-polysilicon-1)	voltage
	262	V(x4#1contact@36_metal-1-polysilicon-1)	voltage
	263	V(net@22#6contact@39_metal-1-polysilicon-1)	voltage
	264	V(net@275#5contact@68_metal-1-polysilicon-1)	voltage
	265	V(x4#21contact@69_metal-1-polysilicon-1)	voltage
	266	V(x2#23contact@91_metal-1-polysilicon-1)	voltage
	267	V(x1#34contact@96_metal-1-polysilicon-1)	voltage
	268	V(x3#21contact@108_metal-1-polysilicon-1)	voltage
	269	V(net@352#18contact@119_metal-1-polysilicon-1)	voltage
	270	V(x2#38contact@123_metal-1-polysilicon-1)	voltage
	271	V(x4#30contact@124_metal-1-polysilicon-1)	voltage
	272	V(net@612#7contact@143_metal-1-polysilicon-1)	voltage
	273	V(x4#33contact@144_metal-1-polysilicon-1)	voltage
	274	V(x3#23contact@152_metal-1-polysilicon-1)	voltage
	275	V(x1#41contact@158_metal-1-polysilicon-1)	voltage
	276	V(x2#47contact@184_metal-1-polysilicon-1)	voltage
	277	V(x2#59pin@448_polysilicon-1)	voltage
	278	V(x3#37contact@197_metal-1-polysilicon-1)	voltage
	279	V(x3#42contact@202_metal-1-polysilicon-1)	voltage
	280	V(x2#67contact@207_metal-1-polysilicon-1)	voltage
	281	V(x1#58contact@212_metal-1-polysilicon-1)	voltage
	282	V(x4#46contact@232_metal-1-polysilicon-1)	voltage
	283	V(x3#53pin@593_polysilicon-1)	voltage
	284	V(x3#62pin@615_polysilicon-1)	voltage
	285	V(x2#77contact@269_metal-1-polysilicon-1)	voltage
	286	V(x2#83pin@704_polysilicon-1)	voltage
	287	V(x2#92pin@726_polysilicon-1)	voltage
	288	V(x3#69contact@325_metal-1-polysilicon-1)	voltage
	289	V(x2#100contact@331_metal-1-polysilicon-1)	voltage
	290	V(x2)	voltage
	291	V(x1#64pin@969_metal-1)	voltage
	292	V(x2#113pin@981_metal-1)	voltage
	293	V(x3)	voltage
	294	V(x4)	voltage
	295	V(net@4#1pin@1_polysilicon-1)	voltage
	296	V(net@4#6pin@2_polysilicon-1)	voltage
	297	V(net@14#13pin@14_polysilicon-1)	voltage
	298	V(net@1#6pin@15_polysilicon-1)	voltage
	299	V(net@4#3pin@21_polysilicon-1)	voltage
	300	V(x3#3pin@24_polysilicon-1)	voltage
	301	V(x3#7pin@25_polysilicon-1)	voltage
	302	V(net@53#13pin@36_polysilicon-1)	voltage
	303	V(x1#6pin@37_polysilicon-1)	voltage
	304	V(x3#5pin@43_polysilicon-1)	voltage
	305	V(net@103#9pin@47_polysilicon-1)	voltage
	306	V(net@22#13pin@48_polysilicon-1)	voltage
	307	V(x2#1pin@52_polysilicon-1)	voltage
	308	V(x4#0pin@60_polysilicon-1)	voltage
	309	V(net@62#11pin@63_polysilicon-1)	voltage
	310	V(net@62#12pin@64_polysilicon-1)	voltage
	311	V(x2#4pin@66_polysilicon-1)	voltage
	312	V(x2#5pin@67_polysilicon-1)	voltage
	313	V(x2#6pin@68_polysilicon-1)	voltage
	314	V(x4#5pin@69_polysilicon-1)	voltage
	315	V(x4#6pin@70_polysilicon-1)	voltage
	316	V(x4#9pin@77_polysilicon-1)	voltage
	317	V(x4#10pin@78_polysilicon-1)	voltage
	318	V(x2#9pin@79_polysilicon-1)	voltage
	319	V(x2#10pin@80_polysilicon-1)	voltage
	320	V(net@62#9pin@81_polysilicon-1)	voltage
	321	V(net@62#7pin@83_polysilicon-1)	voltage
	322	V(net@62#8pin@84_polysilicon-1)	voltage
	323	V(net@22#7pin@85_polysilicon-1)	voltage
	324	V(net@22#9pin@87_polysilicon-1)	voltage
	325	V(net@22#11pin@88_polysilicon-1)	voltage
	326	V(x2#11pin@90_metal-1)	voltage
	327	V(x1#11pin@96_polysilicon-1)	voltage
	328	V(x3#10pin@99_polysilicon-1)	voltage
	329	V(net@241#9pin@123_polysilicon-1)	voltage
	330	V(x4#18pin@124_polysilicon-1)	voltage
	331	V(net@255#1pin@128_polysilicon-1)	voltage
	332	V(net@254)	voltage
	333	V(net@275#1pin@139_polysilicon-1)	voltage
	334	V(net@275#2pin@140_polysilicon-1)	voltage
	335	V(net@255#4pin@142_polysilicon-1)	voltage
	336	V(net@255#5pin@143_polysilicon-1)	voltage
	337	V(net@255#6pin@144_polysilicon-1)	voltage
	338	V(net@254#5pin@145_polysilicon-1)	voltage
	339	V(net@254#6pin@146_polysilicon-1)	voltage
	340	V(net@254#9pin@153_polysilicon-1)	voltage
	341	V(net@254#10pin@154_polysilicon-1)	voltage
	342	V(net@255#9pin@155_polysilicon-1)	voltage
	343	V(net@255#10pin@156_polysilicon-1)	voltage
	344	V(net@275#6pin@157_polysilicon-1)	voltage
	345	V(net@275#9pin@158_polysilicon-1)	voltage
	346	V(net@275#10pin@159_polysilicon-1)	voltage
	347	V(x4#13pin@160_polysilicon-1)	voltage
	348	V(x4#14pin@162_polysilicon-1)	voltage
	349	V(x4#16pin@163_polysilicon-1)	voltage
	350	V(net@352#1pin@167_polysilicon-1)	voltage
	351	V(net@352#5pin@168_polysilicon-1)	voltage
	352	V(net@325#13pin@178_polysilicon-1)	voltage
	353	V(net@321#4pin@179_polysilicon-1)	voltage
	354	V(net@321#5pin@180_polysilicon-1)	voltage
	355	V(net@352#3pin@183_polysilicon-1)	voltage
	356	V(net@352#4pin@184_polysilicon-1)	voltage
	357	V(x1#25pin@186_polysilicon-1)	voltage
	358	V(x1#29pin@187_polysilicon-1)	voltage
	359	V(net@367#13pin@197_polysilicon-1)	voltage
	360	V(x2#17pin@198_polysilicon-1)	voltage
	361	V(x2#18pin@199_polysilicon-1)	voltage
	362	V(x1#27pin@202_polysilicon-1)	voltage
	363	V(x1#28pin@203_polysilicon-1)	voltage
	364	V(x2#21pin@208_polysilicon-1)	voltage
	365	V(x1#32pin@213_polysilicon-1)	voltage
	366	V(x4#25pin@233_metal-1)	voltage
	367	V(x3#19pin@244_polysilicon-1)	voltage
	368	V(net@275#27pin@256_polysilicon-1)	voltage
	369	V(net@275#28pin@257_polysilicon-1)	voltage
	370	V(net@517#1pin@259_polysilicon-1)	voltage
	371	V(net@517#2pin@260_polysilicon-1)	voltage
	372	V(x2#36pin@261_polysilicon-1)	voltage
	373	V(x2#37pin@262_polysilicon-1)	voltage
	374	V(net@352#22pin@263_polysilicon-1)	voltage
	375	V(net@352#24pin@269_polysilicon-1)	voltage
	376	V(net@275#31pin@271_polysilicon-1)	voltage
	377	V(net@275#32pin@272_polysilicon-1)	voltage
	378	V(net@517#6pin@274_polysilicon-1)	voltage
	379	V(net@517#8pin@275_polysilicon-1)	voltage
	380	V(net@517#9pin@276_polysilicon-1)	voltage
	381	V(x2#40pin@278_polysilicon-1)	voltage
	382	V(x2#42pin@279_polysilicon-1)	voltage
	383	V(net@352#26pin@281_polysilicon-1)	voltage
	384	V(net@352#27pin@282_polysilicon-1)	voltage
	385	V(x4#28pin@289_polysilicon-1)	voltage
	386	V(x2#44pin@295_metal-1)	voltage
	387	V(x4#32pin@300_metal-1)	voltage
	388	V(net@587#16pin@303_polysilicon-1)	voltage
	389	V(net@612#4pin@304_polysilicon-1)	voltage
	390	V(net@603#5pin@307_polysilicon-1)	voltage
	391	V(x4#41pin@316_polysilicon-1)	voltage
	392	V(net@607#6pin@317_polysilicon-1)	voltage
	393	V(net@607#7pin@318_polysilicon-1)	voltage
	394	V(net@603#8pin@319_polysilicon-1)	voltage
	395	V(net@603#9pin@320_polysilicon-1)	voltage
	396	V(net@603#3pin@321_polysilicon-1)	voltage
	397	V(net@612#8pin@322_polysilicon-1)	voltage
	398	V(net@612#2pin@324_polysilicon-1)	voltage
	399	V(x4#35pin@325_polysilicon-1)	voltage
	400	V(x4#36pin@327_polysilicon-1)	voltage
	401	V(x4#42pin@329_polysilicon-1)	voltage
	402	V(net@597#6pin@330_polysilicon-1)	voltage
	403	V(net@597#7pin@331_polysilicon-1)	voltage
	404	V(net@597#1pin@338_polysilicon-1)	voltage
	405	V(net@597#2pin@340_polysilicon-1)	voltage
	406	V(net@597#5pin@341_polysilicon-1)	voltage
	407	V(net@603#1pin@342_polysilicon-1)	voltage
	408	V(net@603#2pin@343_polysilicon-1)	voltage
	409	V(net@607#1pin@344_polysilicon-1)	voltage
	410	V(net@607#2pin@345_polysilicon-1)	voltage
	411	V(x4#38pin@346_polysilicon-1)	voltage
	412	V(net@612#1pin@348_polysilicon-1)	voltage
	413	V(x3#25pin@352_polysilicon-1)	voltage
	414	V(net@679#8pin@362_polysilicon-1)	voltage
	415	V(x3#29pin@368_polysilicon-1)	voltage
	416	V(net@705#1pin@369_polysilicon-1)	voltage
	417	V(net@705#2pin@370_polysilicon-1)	voltage
	418	V(x1#49pin@375_polysilicon-1)	voltage
	419	V(x1#50pin@376_polysilicon-1)	voltage
	420	V(x3#31pin@377_polysilicon-1)	voltage
	421	V(net@705#4pin@379_polysilicon-1)	voltage
	422	V(net@705#5pin@380_polysilicon-1)	voltage
	423	V(net@759#1pin@384_polysilicon-1)	voltage
	424	V(net@759#6pin@385_polysilicon-1)	voltage
	425	V(net@738#6pin@396_polysilicon-1)	voltage
	426	V(net@352#33pin@397_polysilicon-1)	voltage
	427	V(net@759#3pin@403_polysilicon-1)	voltage
	428	V(net@806#1pin@406_polysilicon-1)	voltage
	429	V(net@806#6pin@407_polysilicon-1)	voltage
	430	V(net@785#6pin@418_polysilicon-1)	voltage
	431	V(x2#46pin@419_polysilicon-1)	voltage
	432	V(net@806#3pin@425_polysilicon-1)	voltage
	433	V(x2#56pin@428_polysilicon-1)	voltage
	434	V(x2#61pin@429_polysilicon-1)	voltage
	435	V(net@832#6pin@440_polysilicon-1)	voltage
	436	V(net@352#43pin@441_polysilicon-1)	voltage
	437	V(x2#58pin@447_polysilicon-1)	voltage
	438	V(x3#35pin@451_polysilicon-1)	voltage
	439	V(x3#40pin@458_polysilicon-1)	voltage
	440	V(x2#65pin@465_polysilicon-1)	voltage
	441	V(x4#45pin@479_metal-1)	voltage
	442	V(x2#72pin@494_metal-1)	voltage
	443	V(x2#73pin@496_metal-1)	voltage
	444	V(x1#56pin@499_polysilicon-1)	voltage
	445	V(x1#60pin@505_metal-1)	voltage
	446	V(net@995#9pin@508_polysilicon-1)	voltage
	447	V(x4#53pin@509_polysilicon-1)	voltage
	448	V(net@983#1pin@513_polysilicon-1)	voltage
	449	V(net@1008)	voltage
	450	V(net@984#7pin@524_polysilicon-1)	voltage
	451	V(net@984#8pin@525_polysilicon-1)	voltage
	452	V(net@983#5pin@527_polysilicon-1)	voltage
	453	V(net@983#6pin@528_polysilicon-1)	voltage
	454	V(net@983#7pin@529_polysilicon-1)	voltage
	455	V(net@1008#5pin@530_polysilicon-1)	voltage
	456	V(net@1008#6pin@531_polysilicon-1)	voltage
	457	V(net@1008#9pin@538_polysilicon-1)	voltage
	458	V(net@1008#10pin@539_polysilicon-1)	voltage
	459	V(net@983#10pin@540_polysilicon-1)	voltage
	460	V(net@983)	voltage
	461	V(net@984#1pin@542_polysilicon-1)	voltage
	462	V(net@984#4pin@544_polysilicon-1)	voltage
	463	V(net@984#5pin@545_polysilicon-1)	voltage
	464	V(x4#47pin@546_polysilicon-1)	voltage
	465	V(x4#49pin@548_polysilicon-1)	voltage
	466	V(x4#51pin@549_polysilicon-1)	voltage
	467	V(net@1072#1pin@551_polysilicon-1)	voltage
	468	V(net@1072#6pin@552_polysilicon-1)	voltage
	469	V(net@1068#14pin@563_polysilicon-1)	voltage
	470	V(net@352#54pin@564_polysilicon-1)	voltage
	471	V(net@1072#3pin@570_polysilicon-1)	voltage
	472	V(x3#50pin@573_polysilicon-1)	voltage
	473	V(x3#55pin@574_polysilicon-1)	voltage
	474	V(net@1115#14pin@585_polysilicon-1)	voltage
	475	V(net@352#64pin@586_polysilicon-1)	voltage
	476	V(x3#52pin@592_polysilicon-1)	voltage
	477	V(x3#59pin@595_polysilicon-1)	voltage
	478	V(x3#64pin@596_polysilicon-1)	voltage
	479	V(net@1162#14pin@607_polysilicon-1)	voltage
	480	V(net@1072#11pin@608_polysilicon-1)	voltage
	481	V(x3#61pin@614_polysilicon-1)	voltage
	482	V(x2#75pin@624_polysilicon-1)	voltage
	483	V(x3#67pin@634_metal-1)	voltage
	484	V(x4#57pin@638_metal-1)	voltage
	485	V(net@1252#9pin@641_polysilicon-1)	voltage
	486	V(net@1246#6pin@642_polysilicon-1)	voltage
	487	V(net@1240#1pin@646_polysilicon-1)	voltage
	488	V(net@1265)	voltage
	489	V(x4#64pin@657_polysilicon-1)	voltage
	490	V(x4#65pin@658_polysilicon-1)	voltage
	491	V(net@1240#5pin@660_polysilicon-1)	voltage
	492	V(net@1240#6pin@661_polysilicon-1)	voltage
	493	V(net@1240#7pin@662_polysilicon-1)	voltage
	494	V(net@1265#5pin@663_polysilicon-1)	voltage
	495	V(net@1265#6pin@664_polysilicon-1)	voltage
	496	V(net@1265#9pin@671_polysilicon-1)	voltage
	497	V(net@1265#10pin@672_polysilicon-1)	voltage
	498	V(net@1240#10pin@673_polysilicon-1)	voltage
	499	V(net@1240)	voltage
	500	V(x4#59pin@675_polysilicon-1)	voltage
	501	V(x4#61pin@677_polysilicon-1)	voltage
	502	V(x4#62pin@678_polysilicon-1)	voltage
	503	V(net@1246#1pin@679_polysilicon-1)	voltage
	504	V(net@1246#2pin@681_polysilicon-1)	voltage
	505	V(net@1246#4pin@682_polysilicon-1)	voltage
	506	V(x2#80pin@684_polysilicon-1)	voltage
	507	V(x2#85pin@685_polysilicon-1)	voltage
	508	V(net@1325#14pin@696_polysilicon-1)	voltage
	509	V(net@352#74pin@697_polysilicon-1)	voltage
	510	V(x2#82pin@703_polysilicon-1)	voltage
	511	V(x2#89pin@706_polysilicon-1)	voltage
	512	V(x2#94pin@707_polysilicon-1)	voltage
	513	V(net@1372#14pin@718_polysilicon-1)	voltage
	514	V(net@1365#2pin@719_polysilicon-1)	voltage
	515	V(x2#91pin@725_polysilicon-1)	voltage
	516	V(net@1423#1pin@728_polysilicon-1)	voltage
	517	V(net@1423#6pin@729_polysilicon-1)	voltage
	518	V(net@1419#14pin@740_polysilicon-1)	voltage
	519	V(x3#71pin@741_polysilicon-1)	voltage
	520	V(net@1423#3pin@747_polysilicon-1)	voltage
	521	V(x3#80pin@749_polysilicon-1)	voltage
	522	V(x2#98pin@754_polysilicon-1)	voltage
	523	V(x1#67pin@968_metal-1)	voltage
	524	V(x1#66pin@971_metal-1)	voltage
	525	V(net@4##0)	voltage
	526	V(net@4##1)	voltage
	527	V(net@4##2)	voltage
	528	V(net@4#2nmos@0_poly-right##0)	voltage
	529	V(net@4#3pin@21_polysilicon-1##0)	voltage
	530	V(net@4#3pin@21_polysilicon-1##1)	voltage
	531	V(net@4#3pin@21_polysilicon-1##2)	voltage
	532	V(net@4#3pin@21_polysilicon-1##3)	voltage
	533	V(net@4#3pin@21_polysilicon-1##4)	voltage
	534	V(net@4#3pin@21_polysilicon-1##5)	voltage
	535	V(net@4#3pin@21_polysilicon-1##6)	voltage
	536	V(net@4#3pin@21_polysilicon-1##7)	voltage
	537	V(net@4#3pin@21_polysilicon-1##8)	voltage
	538	V(net@4#3pin@21_polysilicon-1##9)	voltage
	539	V(net@4#3pin@21_polysilicon-1##10)	voltage
	540	V(net@4#3pin@21_polysilicon-1##11)	voltage
	541	V(net@4#1pin@1_polysilicon-1##0)	voltage
	542	V(net@1#2nmos@1_poly-left##0)	voltage
	543	V(net@1#2nmos@1_poly-left##1)	voltage
	544	V(net@1#2nmos@1_poly-left##2)	voltage
	545	V(net@1#6pin@15_polysilicon-1##0)	voltage
	546	V(net@1#6pin@15_polysilicon-1##1)	voltage
	547	V(net@1#6pin@15_polysilicon-1##2)	voltage
	548	V(net@1#6pin@15_polysilicon-1##3)	voltage
	549	V(net@1#6pin@15_polysilicon-1##4)	voltage
	550	V(net@1#6pin@15_polysilicon-1##5)	voltage
	551	V(net@1#6pin@15_polysilicon-1##6)	voltage
	552	V(net@1#6pin@15_polysilicon-1##7)	voltage
	553	V(net@1#6pin@15_polysilicon-1##8)	voltage
	554	V(net@1#6pin@15_polysilicon-1##9)	voltage
	555	V(net@1#6pin@15_polysilicon-1##10)	voltage
	556	V(net@1#6pin@15_polysilicon-1##11)	voltage
	557	V(net@1#6pin@15_polysilicon-1##12)	voltage
	558	V(net@1#6pin@15_polysilicon-1##13)	voltage
	559	V(net@14#12nmos@2_poly-left##0)	voltage
	560	V(net@14#12nmos@2_poly-left##1)	voltage
	561	V(net@14#13pin@14_polysilicon-1##0)	voltage
	562	V(net@1#3pin@3_polysilicon-1##0)	voltage
	563	V(x1#2nmos@4_poly-left##0)	voltage
	564	V(x1#2nmos@4_poly-left##1)	voltage
	565	V(x1#2nmos@4_poly-left##2)	voltage
	566	V(x1#6pin@37_polysilicon-1##0)	voltage
	567	V(x1#6pin@37_polysilicon-1##1)	voltage
	568	V(x1#6pin@37_polysilicon-1##2)	voltage
	569	V(x1#6pin@37_polysilicon-1##3)	voltage
	570	V(x1#6pin@37_polysilicon-1##4)	voltage
	571	V(x1#6pin@37_polysilicon-1##5)	voltage
	572	V(x1#6pin@37_polysilicon-1##6)	voltage
	573	V(x1#6pin@37_polysilicon-1##7)	voltage
	574	V(x1#6pin@37_polysilicon-1##8)	voltage
	575	V(x1#6pin@37_polysilicon-1##9)	voltage
	576	V(x1#6pin@37_polysilicon-1##10)	voltage
	577	V(x1#6pin@37_polysilicon-1##11)	voltage
	578	V(x1#6pin@37_polysilicon-1##12)	voltage
	579	V(x1#6pin@37_polysilicon-1##13)	voltage
	580	V(net@53#12nmos@5_poly-left##0)	voltage
	581	V(net@53#12nmos@5_poly-left##1)	voltage
	582	V(net@53#13pin@36_polysilicon-1##0)	voltage
	583	V(x3#2pmos@3_poly-right##0)	voltage
	584	V(x3#2pmos@3_poly-right##1)	voltage
	585	V(x3#2pmos@3_poly-right##2)	voltage
	586	V(x1#3pin@26_polysilicon-1##0)	voltage
	587	V(x3#4nmos@3_poly-right##0)	voltage
	588	V(x3#5pin@43_polysilicon-1##0)	voltage
	589	V(x3#5pin@43_polysilicon-1##1)	voltage
	590	V(x3#5pin@43_polysilicon-1##2)	voltage
	591	V(x3#5pin@43_polysilicon-1##3)	voltage
	592	V(x3#5pin@43_polysilicon-1##4)	voltage
	593	V(x3#5pin@43_polysilicon-1##5)	voltage
	594	V(x3#5pin@43_polysilicon-1##6)	voltage
	595	V(x3#5pin@43_polysilicon-1##7)	voltage
	596	V(x3#5pin@43_polysilicon-1##8)	voltage
	597	V(x3#5pin@43_polysilicon-1##9)	voltage
	598	V(x3#5pin@43_polysilicon-1##10)	voltage
	599	V(x3#5pin@43_polysilicon-1##11)	voltage
	600	V(x3#3pin@24_polysilicon-1##0)	voltage
	601	V(net@62#6pmos@7_poly-left##0)	voltage
	602	V(net@62#7pin@83_polysilicon-1##0)	voltage
	603	V(net@62#7pin@83_polysilicon-1##1)	voltage
	604	V(net@62#7pin@83_polysilicon-1##2)	voltage
	605	V(net@62#7pin@83_polysilicon-1##3)	voltage
	606	V(net@62#7pin@83_polysilicon-1##4)	voltage
	607	V(net@62#7pin@83_polysilicon-1##5)	voltage
	608	V(net@62#7pin@83_polysilicon-1##6)	voltage
	609	V(net@62#7pin@83_polysilicon-1##7)	voltage
	610	V(net@62#7pin@83_polysilicon-1##8)	voltage
	611	V(net@62#7pin@83_polysilicon-1##9)	voltage
	612	V(net@62#7pin@83_polysilicon-1##10)	voltage
	613	V(net@62#7pin@83_polysilicon-1##11)	voltage
	614	V(net@62#7pin@83_polysilicon-1##12)	voltage
	615	V(net@62#7pin@83_polysilicon-1##13)	voltage
	616	V(net@62#7pin@83_polysilicon-1##14)	voltage
	617	V(net@62#9pin@81_polysilicon-1##0)	voltage
	618	V(net@22#6contact@39_metal-1-polysilicon-1##0)	voltage
	619	V(net@22#7pin@85_polysilicon-1##0)	voltage
	620	V(net@22#10nmos@6_poly-right##0)	voltage
	621	V(net@22#11pin@88_polysilicon-1##0)	voltage
	622	V(net@22#11pin@88_polysilicon-1##1)	voltage
	623	V(net@22#11pin@88_polysilicon-1##2)	voltage
	624	V(net@22#11pin@88_polysilicon-1##3)	voltage
	625	V(net@22#11pin@88_polysilicon-1##4)	voltage
	626	V(net@22#11pin@88_polysilicon-1##5)	voltage
	627	V(net@22#11pin@88_polysilicon-1##6)	voltage
	628	V(net@22#11pin@88_polysilicon-1##7)	voltage
	629	V(net@22#11pin@88_polysilicon-1##8)	voltage
	630	V(net@22#11pin@88_polysilicon-1##9)	voltage
	631	V(net@22#11pin@88_polysilicon-1##10)	voltage
	632	V(net@22#11pin@88_polysilicon-1##11)	voltage
	633	V(net@22#12pmos@6_poly-right##0)	voltage
	634	V(net@22#12pmos@6_poly-right##1)	voltage
	635	V(net@22#12pmos@6_poly-right##2)	voltage
	636	V(net@22#12pmos@6_poly-right##3)	voltage
	637	V(net@22#12pmos@6_poly-right##4)	voltage
	638	V(net@22#12pmos@6_poly-right##5)	voltage
	639	V(net@22#12pmos@6_poly-right##6)	voltage
	640	V(net@22#12pmos@6_poly-right##7)	voltage
	641	V(net@22#13pin@48_polysilicon-1##0)	voltage
	642	V(net@22#13pin@48_polysilicon-1##1)	voltage
	643	V(x4#0pin@60_polysilicon-1##0)	voltage
	644	V(x2#0contact@35_metal-1-polysilicon-1##0)	voltage
	645	V(net@103#5pmos@9_poly-right##0)	voltage
	646	V(net@103#5pmos@9_poly-right##1)	voltage
	647	V(net@103#5pmos@9_poly-right##2)	voltage
	648	V(net@103#5pmos@9_poly-right##3)	voltage
	649	V(net@103#5pmos@9_poly-right##4)	voltage
	650	V(net@103#5pmos@9_poly-right##5)	voltage
	651	V(net@103#5pmos@9_poly-right##6)	voltage
	652	V(net@103#11nmos@9_poly-left##0)	voltage
	653	V(net@103#11nmos@9_poly-left##1)	voltage
	654	V(net@103#11nmos@9_poly-left##2)	voltage
	655	V(net@62#10nmos@7_poly-left##0)	voltage
	656	V(net@62#10nmos@7_poly-left##1)	voltage
	657	V(net@62#10nmos@7_poly-left##2)	voltage
	658	V(net@62#10nmos@7_poly-left##3)	voltage
	659	V(net@62#10nmos@7_poly-left##4)	voltage
	660	V(net@62#11pin@63_polysilicon-1##0)	voltage
	661	V(net@62#6pmos@7_poly-left##1)	voltage
	662	V(net@62#6pmos@7_poly-left##2)	voltage
	663	V(net@62#6pmos@7_poly-left##3)	voltage
	664	V(net@62#6pmos@7_poly-left##4)	voltage
	665	V(x2#3nmos@8_poly-left##0)	voltage
	666	V(x2#3nmos@8_poly-left##1)	voltage
	667	V(x2#3nmos@8_poly-left##2)	voltage
	668	V(x2#3nmos@8_poly-left##3)	voltage
	669	V(x2#3nmos@8_poly-left##4)	voltage
	670	V(x2#4pin@66_polysilicon-1##0)	voltage
	671	V(x2#5pin@67_polysilicon-1##0)	voltage
	672	V(x2#5pin@67_polysilicon-1##1)	voltage
	673	V(x2#5pin@67_polysilicon-1##2)	voltage
	674	V(x2#6pin@68_polysilicon-1##0)	voltage
	675	V(x2#6pin@68_polysilicon-1##1)	voltage
	676	V(x2#6pin@68_polysilicon-1##2)	voltage
	677	V(x4#4nmos@10_poly-left##0)	voltage
	678	V(x4#4nmos@10_poly-left##1)	voltage
	679	V(x4#4nmos@10_poly-left##2)	voltage
	680	V(x4#4nmos@10_poly-left##3)	voltage
	681	V(x4#4nmos@10_poly-left##4)	voltage
	682	V(x4#4nmos@10_poly-left##5)	voltage
	683	V(x4#4nmos@10_poly-left##6)	voltage
	684	V(x4#4nmos@10_poly-left##7)	voltage
	685	V(x4#4nmos@10_poly-left##8)	voltage
	686	V(x4#5pin@69_polysilicon-1##0)	voltage
	687	V(x4#5pin@69_polysilicon-1##1)	voltage
	688	V(x4#5pin@69_polysilicon-1##2)	voltage
	689	V(x4#5pin@69_polysilicon-1##3)	voltage
	690	V(x4#6pin@70_polysilicon-1##0)	voltage
	691	V(x4#9pin@77_polysilicon-1##0)	voltage
	692	V(x4#9pin@77_polysilicon-1##1)	voltage
	693	V(x4#9pin@77_polysilicon-1##2)	voltage
	694	V(x4#9pin@77_polysilicon-1##3)	voltage
	695	V(x4#10pin@78_polysilicon-1##0)	voltage
	696	V(x2#7pmos@8_poly-right##0)	voltage
	697	V(x2#9pin@79_polysilicon-1##0)	voltage
	698	V(x2#9pin@79_polysilicon-1##1)	voltage
	699	V(x2#9pin@79_polysilicon-1##2)	voltage
	700	V(x2#9pin@79_polysilicon-1##3)	voltage
	701	V(x2#9pin@79_polysilicon-1##4)	voltage
	702	V(x2#9pin@79_polysilicon-1##5)	voltage
	703	V(x2#9pin@79_polysilicon-1##6)	voltage
	704	V(x2#9pin@79_polysilicon-1##7)	voltage
	705	V(x2#9pin@79_polysilicon-1##8)	voltage